# LAMMPS data file written by OVITO Basic 3.10.6

5231 atoms
3 atom types

-27.1682571988 45.2804286647 xlo xhi
-18.6308020771 18.6308020771 ylo yhi
-12.1500139854 20.2500233089 zlo zhi

Masses

1 26.9815  # Al
2 26.9815  # Al
3 58.74  # Ni

Atoms  # atomic

1	1	-23.49541164	-16.57978386	-12.15001399
2	1	26.31305989	16.57973243	-2.025002331
3	1	25.47402143	1.298924707	-2.025002331
4	1	23.64770305	2.051018217	3.55e-15
5	1	22.80660198	-2.57e-05	-2.025002331
6	1	25.47402143	-1.298976134	-2.025002331
7	1	23.64770305	-2.051069646	-4.050004662
8	1	26.31305989	-16.57978386	-2.025002331
9	1	24.48674151	17.33182594	8.88e-16
10	1	24.48674151	-17.33187737	-4.050004662
11	1	30.84110275	16.57973243	0.0
12	1	29.01478437	17.33182594	-2.025002331
13	1	28.17574592	2.051018217	-2.025002331
14	1	30.0020643	1.298924707	1.78e-15
15	1	27.33464485	-2.57e-05	8.88e-16
16	1	19.11966018	-2.051069646	-2.025002331
17	1	20.94597856	-1.298976134	-4.050004662
18	1	22.62611809	18.63077636	-2.025002331
19	1	19.95869865	-17.33187737	-2.025002331
20	1	27.15416096	18.63077636	8.88e-16
21	1	19.95869865	-17.33187737	2.025002331
22	1	26.31305989	16.57973243	2.025002331
23	1	25.47402143	1.298924707	2.025002331
24	1	23.64770305	2.051018217	4.050004662
25	1	22.80660198	-2.57e-05	2.025002331
26	1	25.47402143	-1.298976134	2.025002331
27	1	23.64770305	-2.051069646	-1.78e-15
28	1	26.31305989	-16.57978386	2.025002331
29	1	21.78501702	-16.57978386	2.26e-15
30	1	24.48674151	-17.33187737	2.34e-15
31	1	30.84110275	16.57973243	4.050004662
32	1	29.01478437	17.33182594	2.025002331
33	1	28.17574592	2.051018217	2.025002331
34	1	30.0020643	1.298924707	4.050004662
35	1	27.33464485	-2.57e-05	4.050004662
36	1	19.11966018	-2.051069646	2.025002331
37	1	20.94597856	-1.298976134	-8.88e-16
38	1	22.62611809	18.63077636	2.025002331
39	1	24.48674151	17.33182594	4.050004662
40	1	21.78501702	-16.57978386	-4.050004662
41	1	24.48674151	17.33182594	-4.050004662
42	1	26.31305989	16.57973243	-10.12501165
43	1	25.47402143	1.298924707	-10.12501165
44	1	23.64770305	2.051018217	-8.100009324
45	1	22.80660198	-2.57e-05	-10.12501165
46	1	25.47402143	-1.298976134	-10.12501165
47	1	23.64770305	-2.051069646	20.25002331
48	1	26.31305989	-16.57978386	-10.12501165
49	1	24.48674151	17.33182594	-8.100009324
50	1	24.48674151	-17.33187737	-12.15001399
51	1	30.84110275	16.57973243	-8.100009324
52	1	29.01478437	17.33182594	-10.12501165
53	1	28.17574592	2.051018217	-10.12501165
54	1	30.0020643	1.298924707	-8.100009324
55	1	27.33464485	-2.57e-05	-8.100009324
56	1	19.11966018	-2.051069646	-10.12501165
57	1	20.94597856	-1.298976134	-12.15001399
58	1	22.62611809	18.63077636	-10.12501165
59	1	27.15416096	18.63077636	-4.050004662
60	1	27.15416096	18.63077636	-8.100009324
61	1	19.95869865	-17.33187737	-6.075006993
62	1	26.31305989	16.57973243	-6.075006993
63	1	25.47402143	1.298924707	-6.075006993
64	1	23.64770305	2.051018217	-4.050004662
65	1	22.80660198	-2.57e-05	-6.075006993
66	1	25.47402143	-1.298976134	-6.075006993
67	1	23.64770305	-2.051069646	-8.100009324
68	1	26.31305989	-16.57978386	-6.075006993
69	1	21.78501702	-16.57978386	-8.100009324
70	1	24.48674151	-17.33187737	-8.100009324
71	1	30.84110275	16.57973243	-4.050004662
72	1	29.01478437	17.33182594	-6.075006993
73	1	28.17574592	2.051018217	-6.075006993
74	1	30.0020643	1.298924707	-4.050004662
75	1	27.33464485	-2.57e-05	-4.050004662
76	1	19.11966018	-2.051069646	-6.075006993
77	1	20.94597856	-1.298976134	-8.100009324
78	1	22.62611809	18.63077636	-6.075006993
79	1	19.95869865	-17.33187737	-10.12501165
80	1	27.15416096	18.63077636	4.050004662
81	1	19.95869865	-17.33187737	6.075006993
82	1	26.31305989	16.57973243	14.17501632
83	1	25.47402143	1.298924707	14.17501632
84	1	23.64770305	2.051018217	16.20001865
85	1	22.80660198	-2.57e-05	14.17501632
86	1	25.47402143	-1.298976134	14.17501632
87	1	23.64770305	-2.051069646	12.15001399
88	1	26.31305989	-16.57978386	14.17501632
89	1	24.48674151	17.33182594	16.20001865
90	1	24.48674151	-17.33187737	12.15001399
91	1	30.84110275	16.57973243	16.20001865
92	1	29.01478437	17.33182594	14.17501632
93	1	28.17574592	2.051018217	14.17501632
94	1	30.0020643	1.298924707	16.20001865
95	1	27.33464485	-2.57e-05	16.20001865
96	1	19.11966018	-2.051069646	14.17501632
97	1	20.94597856	-1.298976134	12.15001399
98	1	22.62611809	18.63077636	14.17501632
99	1	19.95869865	-17.33187737	14.17501632
100	1	27.15416096	18.63077636	16.20001865
101	1	19.95869865	-17.33187737	18.22502098
102	1	26.31305989	16.57973243	18.22502098
103	1	25.47402143	1.298924707	18.22502098
104	1	23.64770305	2.051018217	-12.15001399
105	1	22.80660198	-2.57e-05	18.22502098
106	1	25.47402143	-1.298976134	18.22502098
107	1	23.64770305	-2.051069646	16.20001865
108	1	26.31305989	-16.57978386	18.22502098
109	1	21.78501702	-16.57978386	16.20001865
110	1	24.48674151	-17.33187737	16.20001865
111	1	30.84110275	16.57973243	-12.15001399
112	1	29.01478437	17.33182594	18.22502098
113	1	28.17574592	2.051018217	18.22502098
114	1	30.0020643	1.298924707	-12.15001399
115	1	27.33464485	-2.57e-05	-12.15001399
116	1	19.11966018	-2.051069646	18.22502098
117	1	20.94597856	-1.298976134	16.20001865
118	1	22.62611809	18.63077636	18.22502098
119	1	21.78501702	-16.57978386	4.050004662
120	1	21.78501702	-16.57978386	12.15001399
121	1	24.48674151	17.33182594	12.15001399
122	1	26.31305989	16.57973243	6.075006993
123	1	25.47402143	1.298924707	6.075006993
124	1	23.64770305	2.051018217	8.100009324
125	1	22.80660198	-2.57e-05	6.075006993
126	1	25.47402143	-1.298976134	6.075006993
127	1	23.64770305	-2.051069646	4.050004662
128	1	26.31305989	-16.57978386	6.075006993
129	1	24.48674151	17.33182594	8.100009324
130	1	24.48674151	-17.33187737	4.050004662
131	1	30.84110275	16.57973243	8.100009324
132	1	29.01478437	17.33182594	6.075006993
133	1	28.17574592	2.051018217	6.075006993
134	1	30.0020643	1.298924707	8.100009324
135	1	27.33464485	-2.57e-05	8.100009324
136	1	19.11966018	-2.051069646	6.075006993
137	1	20.94597856	-1.298976134	4.050004662
138	1	22.62611809	18.63077636	6.075006993
139	1	27.15416096	18.63077636	12.15001399
140	1	27.15416096	18.63077636	8.100009324
141	1	19.95869865	-17.33187737	10.12501165
142	1	26.31305989	16.57973243	10.12501165
143	1	25.47402143	1.298924707	10.12501165
144	1	23.64770305	2.051018217	12.15001399
145	1	22.80660198	-2.57e-05	10.12501165
146	1	25.47402143	-1.298976134	10.12501165
147	1	23.64770305	-2.051069646	8.100009324
148	1	26.31305989	-16.57978386	10.12501165
149	1	21.78501702	-16.57978386	8.100009324
150	1	24.48674151	-17.33187737	8.100009324
151	1	30.84110275	16.57973243	12.15001399
152	1	29.01478437	17.33182594	10.12501165
153	1	28.17574592	2.051018217	10.12501165
154	1	30.0020643	1.298924707	12.15001399
155	1	27.33464485	-2.57e-05	12.15001399
156	1	19.11966018	-2.051069646	10.12501165
157	1	20.94597856	-1.298976134	8.100009324
158	1	22.62611809	18.63077636	10.12501165
159	1	24.48674151	17.33182594	-12.15001399
160	1	21.78501702	-16.57978386	-12.15001399
161	1	15.43065577	17.33182594	-12.15001399
162	1	17.25697415	16.57973243	-2.025002331
163	1	16.4179357	1.298924707	-2.025002331
164	1	14.59161732	2.051018217	3.55e-15
165	1	13.75051625	-2.57e-05	-2.025002331
166	1	16.41793569	-1.298976134	-2.025002331
167	1	14.59161731	-2.051069646	-4.050004662
168	1	17.25697416	-16.57978386	-2.025002331
169	1	15.43065577	17.33182594	8.88e-16
170	1	15.43065578	-17.33187737	-4.050004662
171	1	21.78501702	16.57973243	0.0
172	1	19.95869864	17.33182594	-2.025002331
173	1	19.11966019	2.051018217	-2.025002331
174	1	20.94597857	1.298924707	1.78e-15
175	1	18.27855911	-2.57e-05	8.88e-16
176	1	10.06357445	-2.051069646	-2.025002331
177	1	11.88989283	-1.298976134	-4.050004662
178	1	13.57003236	18.63077636	-2.025002331
179	1	10.90261291	-17.33187737	-2.025002331
180	1	18.09807523	18.63077636	8.88e-16
181	1	10.90261291	-17.33187737	2.025002331
182	1	17.25697415	16.57973243	2.025002331
183	1	16.4179357	1.298924707	2.025002331
184	1	14.59161732	2.051018217	4.050004662
185	1	13.75051625	-2.57e-05	2.025002331
186	1	16.41793569	-1.298976134	2.025002331
187	1	14.59161731	-2.051069646	-1.78e-15
188	1	17.25697416	-16.57978386	2.025002331
189	1	12.72893129	-16.57978386	2.26e-15
190	1	15.43065578	-17.33187737	2.34e-15
191	1	21.78501702	16.57973243	4.050004662
192	1	19.95869864	17.33182594	2.025002331
193	1	19.11966019	2.051018217	2.025002331
194	1	20.94597857	1.298924707	4.050004662
195	1	18.27855911	-2.57e-05	4.050004662
196	1	10.06357445	-2.051069646	2.025002331
197	1	11.88989283	-1.298976134	-8.88e-16
198	1	13.57003236	18.63077636	2.025002331
199	1	15.43065577	17.33182594	4.050004662
200	1	12.72893129	-16.57978386	-4.050004662
201	1	15.43065577	17.33182594	-4.050004662
202	1	17.25697415	16.57973243	-10.12501165
203	1	16.4179357	1.298924707	-10.12501165
204	1	14.59161732	2.051018217	-8.100009324
205	1	13.75051625	-2.57e-05	-10.12501165
206	1	16.41793569	-1.298976134	-10.12501165
207	1	14.59161731	-2.051069646	20.25002331
208	1	17.25697416	-16.57978386	-10.12501165
209	1	15.43065577	17.33182594	-8.100009324
210	1	15.43065578	-17.33187737	-12.15001399
211	1	21.78501702	16.57973243	-8.100009324
212	1	19.95869864	17.33182594	-10.12501165
213	1	19.11966019	2.051018217	-10.12501165
214	1	20.94597857	1.298924707	-8.100009324
215	1	18.27855911	-2.57e-05	-8.100009324
216	1	10.06357445	-2.051069646	-10.12501165
217	1	11.88989283	-1.298976134	-12.15001399
218	1	13.57003236	18.63077636	-10.12501165
219	1	18.09807523	18.63077636	-4.050004662
220	1	18.09807523	18.63077636	-8.100009324
221	1	10.90261291	-17.33187737	-6.075006993
222	1	17.25697415	16.57973243	-6.075006993
223	1	16.4179357	1.298924707	-6.075006993
224	1	14.59161732	2.051018217	-4.050004662
225	1	13.75051625	-2.57e-05	-6.075006993
226	1	16.41793569	-1.298976134	-6.075006993
227	1	14.59161731	-2.051069646	-8.100009324
228	1	17.25697416	-16.57978386	-6.075006993
229	1	12.72893129	-16.57978386	-8.100009324
230	1	15.43065578	-17.33187737	-8.100009324
231	1	21.78501702	16.57973243	-4.050004662
232	1	19.95869864	17.33182594	-6.075006993
233	1	19.11966019	2.051018217	-6.075006993
234	1	20.94597857	1.298924707	-4.050004662
235	1	18.27855911	-2.57e-05	-4.050004662
236	1	10.06357445	-2.051069646	-6.075006993
237	1	11.88989283	-1.298976134	-8.100009324
238	1	13.57003236	18.63077636	-6.075006993
239	1	18.09807523	18.63077636	-12.15001399
240	1	18.09807523	18.63077636	4.050004662
241	1	10.90261291	-17.33187737	6.075006993
242	1	17.25697415	16.57973243	14.17501632
243	1	16.4179357	1.298924707	14.17501632
244	1	14.59161732	2.051018217	16.20001865
245	1	13.75051625	-2.57e-05	14.17501632
246	1	16.41793569	-1.298976134	14.17501632
247	1	14.59161731	-2.051069646	12.15001399
248	1	17.25697416	-16.57978386	14.17501632
249	1	15.43065577	17.33182594	16.20001865
250	1	15.43065578	-17.33187737	12.15001399
251	1	21.78501702	16.57973243	16.20001865
252	1	19.95869864	17.33182594	14.17501632
253	1	19.11966019	2.051018217	14.17501632
254	1	20.94597857	1.298924707	16.20001865
255	1	18.27855911	-2.57e-05	16.20001865
256	1	10.06357445	-2.051069646	14.17501632
257	1	11.88989283	-1.298976134	12.15001399
258	1	13.57003236	18.63077636	14.17501632
259	1	10.90261291	-17.33187737	14.17501632
260	1	18.09807523	18.63077636	16.20001865
261	1	10.90261291	-17.33187737	18.22502098
262	1	17.25697415	16.57973243	18.22502098
263	1	16.4179357	1.298924707	18.22502098
264	1	14.59161732	2.051018217	-12.15001399
265	1	13.75051625	-2.57e-05	18.22502098
266	1	16.41793569	-1.298976134	18.22502098
267	1	14.59161731	-2.051069646	16.20001865
268	1	17.25697416	-16.57978386	18.22502098
269	1	12.72893129	-16.57978386	16.20001865
270	1	15.43065578	-17.33187737	16.20001865
271	1	21.78501702	16.57973243	-12.15001399
272	1	19.95869864	17.33182594	18.22502098
273	1	19.11966019	2.051018217	18.22502098
274	1	20.94597857	1.298924707	-12.15001399
275	1	18.27855911	-2.57e-05	-12.15001399
276	1	10.06357445	-2.051069646	18.22502098
277	1	11.88989283	-1.298976134	16.20001865
278	1	13.57003236	18.63077636	18.22502098
279	1	12.72893129	-16.57978386	4.050004662
280	1	12.72893129	-16.57978386	12.15001399
281	1	15.43065577	17.33182594	12.15001399
282	1	17.25697415	16.57973243	6.075006993
283	1	16.4179357	1.298924707	6.075006993
284	1	14.59161732	2.051018217	8.100009324
285	1	13.75051625	-2.57e-05	6.075006993
286	1	16.41793569	-1.298976134	6.075006993
287	1	14.59161731	-2.051069646	4.050004662
288	1	17.25697416	-16.57978386	6.075006993
289	1	15.43065577	17.33182594	8.100009324
290	1	15.43065578	-17.33187737	4.050004662
291	1	21.78501702	16.57973243	8.100009324
292	1	19.95869864	17.33182594	6.075006993
293	1	19.11966019	2.051018217	6.075006993
294	1	20.94597857	1.298924707	8.100009324
295	1	18.27855911	-2.57e-05	8.100009324
296	1	10.06357445	-2.051069646	6.075006993
297	1	11.88989283	-1.298976134	4.050004662
298	1	13.57003236	18.63077636	6.075006993
299	1	18.09807523	18.63077636	12.15001399
300	1	18.09807523	18.63077636	8.100009324
301	1	10.90261291	-17.33187737	10.12501165
302	1	17.25697415	16.57973243	10.12501165
303	1	16.4179357	1.298924707	10.12501165
304	1	14.59161732	2.051018217	12.15001399
305	1	13.75051625	-2.57e-05	10.12501165
306	1	16.41793569	-1.298976134	10.12501165
307	1	14.59161731	-2.051069646	8.100009324
308	1	17.25697416	-16.57978386	10.12501165
309	1	12.72893129	-16.57978386	8.100009324
310	1	15.43065578	-17.33187737	8.100009324
311	1	21.78501702	16.57973243	12.15001399
312	1	19.95869864	17.33182594	10.12501165
313	1	19.11966019	2.051018217	10.12501165
314	1	20.94597857	1.298924707	12.15001399
315	1	18.27855911	-2.57e-05	12.15001399
316	1	10.06357445	-2.051069646	10.12501165
317	1	11.88989283	-1.298976134	8.100009324
318	1	13.57003236	18.63077636	10.12501165
319	1	27.15416096	18.63077636	-12.15001399
320	1	30.84110276	-16.57978386	-12.15001399
321	1	29.01478438	-17.33187737	-10.12501165
322	1	45.26633242	18.63077636	8.88e-16
323	1	42.59891297	17.33182594	8.88e-16
324	1	44.42523135	16.57973243	-2.025002331
325	1	43.5861929	1.298924707	-2.025002331
326	1	41.75987452	2.051018217	3.55e-15
327	1	40.91877345	-2.57e-05	-2.025002331
328	1	43.58619289	-1.298976134	-2.025002331
329	1	39.89718849	-16.57978386	2.26e-15
330	1	41.75987451	-2.051069646	-4.050004662
331	1	42.59891298	-17.33187737	-4.050004662
332	1	40.73828956	18.63077636	-2.025002331
333	1	-23.49541165	16.57973243	0.0
334	1	-25.32173003	17.33182594	-2.025002331
335	1	-26.16076848	2.051018217	-2.025002331
336	1	-24.3344501	1.298924707	1.78e-15
337	1	-27.00186955	-2.57e-05	8.88e-16
338	1	44.42523136	-16.57978386	-2.025002331
339	1	37.23183165	-2.051069646	-2.025002331
340	1	38.07087011	-17.33187737	2.025002331
341	1	37.23183165	-2.051069646	2.025002331
342	1	45.26633242	18.63077636	4.050004662
343	1	42.59891297	17.33182594	4.050004662
344	1	44.42523135	16.57973243	2.025002331
345	1	43.5861929	1.298924707	2.025002331
346	1	41.75987452	2.051018217	4.050004662
347	1	40.91877345	-2.57e-05	2.025002331
348	1	43.58619289	-1.298976134	2.025002331
349	1	39.05815003	-1.298976134	-8.88e-16
350	1	41.75987451	-2.051069646	-1.78e-15
351	1	42.59891298	-17.33187737	2.34e-15
352	1	40.73828956	18.63077636	2.025002331
353	1	-23.49541165	16.57973243	4.050004662
354	1	-25.32173003	17.33182594	2.025002331
355	1	-26.16076848	2.051018217	2.025002331
356	1	-24.3344501	1.298924707	4.050004662
357	1	-27.00186955	-2.57e-05	4.050004662
358	1	44.42523136	-16.57978386	2.025002331
359	1	39.89718849	-16.57978386	4.050004662
360	1	39.05815003	-1.298976134	-4.050004662
361	1	39.89718849	-16.57978386	-4.050004662
362	1	45.26633242	18.63077636	-8.100009324
363	1	42.59891297	17.33182594	-8.100009324
364	1	44.42523135	16.57973243	-10.12501165
365	1	43.5861929	1.298924707	-10.12501165
366	1	41.75987452	2.051018217	-8.100009324
367	1	40.91877345	-2.57e-05	-10.12501165
368	1	43.58619289	-1.298976134	-10.12501165
369	1	39.89718849	-16.57978386	-8.100009324
370	1	41.75987451	-2.051069646	20.25002331
371	1	42.59891298	-17.33187737	-12.15001399
372	1	40.73828956	18.63077636	-10.12501165
373	1	-23.49541165	16.57973243	-8.100009324
374	1	-25.32173003	17.33182594	-10.12501165
375	1	-26.16076848	2.051018217	-10.12501165
376	1	-24.3344501	1.298924707	-8.100009324
377	1	-27.00186955	-2.57e-05	-8.100009324
378	1	44.42523136	-16.57978386	-10.12501165
379	1	38.07087011	-17.33187737	-2.025002331
380	1	38.07087011	-17.33187737	-6.075006993
381	1	37.23183165	-2.051069646	-6.075006993
382	1	45.26633242	18.63077636	-4.050004662
383	1	42.59891297	17.33182594	-4.050004662
384	1	44.42523135	16.57973243	-6.075006993
385	1	43.5861929	1.298924707	-6.075006993
386	1	41.75987452	2.051018217	-4.050004662
387	1	40.91877345	-2.57e-05	-6.075006993
388	1	43.58619289	-1.298976134	-6.075006993
389	1	39.05815003	-1.298976134	-8.100009324
390	1	41.75987451	-2.051069646	-8.100009324
391	1	42.59891298	-17.33187737	-8.100009324
392	1	40.73828956	18.63077636	-6.075006993
393	1	-23.49541165	16.57973243	-4.050004662
394	1	-25.32173003	17.33182594	-6.075006993
395	1	-26.16076848	2.051018217	-6.075006993
396	1	-24.3344501	1.298924707	-4.050004662
397	1	-27.00186955	-2.57e-05	-4.050004662
398	1	44.42523136	-16.57978386	-6.075006993
399	1	37.23183165	-2.051069646	-10.12501165
400	1	38.07087011	-17.33187737	6.075006993
401	1	37.23183165	-2.051069646	6.075006993
402	1	45.26633242	18.63077636	16.20001865
403	1	42.59891297	17.33182594	16.20001865
404	1	44.42523135	16.57973243	14.17501632
405	1	43.5861929	1.298924707	14.17501632
406	1	41.75987452	2.051018217	16.20001865
407	1	40.91877345	-2.57e-05	14.17501632
408	1	43.58619289	-1.298976134	14.17501632
409	1	39.89718849	-16.57978386	16.20001865
410	1	41.75987451	-2.051069646	12.15001399
411	1	42.59891298	-17.33187737	12.15001399
412	1	40.73828956	18.63077636	14.17501632
413	1	-23.49541165	16.57973243	16.20001865
414	1	-25.32173003	17.33182594	14.17501632
415	1	-26.16076848	2.051018217	14.17501632
416	1	-24.3344501	1.298924707	16.20001865
417	1	-27.00186955	-2.57e-05	16.20001865
418	1	44.42523136	-16.57978386	14.17501632
419	1	37.23183165	-2.051069646	14.17501632
420	1	38.07087011	-17.33187737	18.22502098
421	1	37.23183165	-2.051069646	18.22502098
422	1	45.26633242	18.63077636	-12.15001399
423	1	42.59891297	17.33182594	-12.15001399
424	1	44.42523135	16.57973243	18.22502098
425	1	43.5861929	1.298924707	18.22502098
426	1	41.75987452	2.051018217	-12.15001399
427	1	40.91877345	-2.57e-05	18.22502098
428	1	43.58619289	-1.298976134	18.22502098
429	1	39.05815003	-1.298976134	16.20001865
430	1	41.75987451	-2.051069646	16.20001865
431	1	42.59891298	-17.33187737	16.20001865
432	1	40.73828956	18.63077636	18.22502098
433	1	-23.49541165	16.57973243	-12.15001399
434	1	-25.32173003	17.33182594	18.22502098
435	1	-26.16076848	2.051018217	18.22502098
436	1	-24.3344501	1.298924707	-12.15001399
437	1	-27.00186955	-2.57e-05	-12.15001399
438	1	44.42523136	-16.57978386	18.22502098
439	1	39.05815003	-1.298976134	4.050004662
440	1	39.05815003	-1.298976134	12.15001399
441	1	39.89718849	-16.57978386	12.15001399
442	1	45.26633242	18.63077636	8.100009324
443	1	42.59891297	17.33182594	8.100009324
444	1	44.42523135	16.57973243	6.075006993
445	1	43.5861929	1.298924707	6.075006993
446	1	41.75987452	2.051018217	8.100009324
447	1	40.91877345	-2.57e-05	6.075006993
448	1	43.58619289	-1.298976134	6.075006993
449	1	39.89718849	-16.57978386	8.100009324
450	1	41.75987451	-2.051069646	4.050004662
451	1	42.59891298	-17.33187737	4.050004662
452	1	40.73828956	18.63077636	6.075006993
453	1	-23.49541165	16.57973243	8.100009324
454	1	-25.32173003	17.33182594	6.075006993
455	1	-26.16076848	2.051018217	6.075006993
456	1	-24.3344501	1.298924707	8.100009324
457	1	-27.00186955	-2.57e-05	8.100009324
458	1	44.42523136	-16.57978386	6.075006993
459	1	38.07087011	-17.33187737	14.17501632
460	1	38.07087011	-17.33187737	10.12501165
461	1	37.23183165	-2.051069646	10.12501165
462	1	45.26633242	18.63077636	12.15001399
463	1	42.59891297	17.33182594	12.15001399
464	1	44.42523135	16.57973243	10.12501165
465	1	43.5861929	1.298924707	10.12501165
466	1	41.75987452	2.051018217	12.15001399
467	1	40.91877345	-2.57e-05	10.12501165
468	1	43.58619289	-1.298976134	10.12501165
469	1	39.05815003	-1.298976134	8.100009324
470	1	41.75987451	-2.051069646	8.100009324
471	1	42.59891298	-17.33187737	8.100009324
472	1	40.73828956	18.63077636	10.12501165
473	1	-23.49541165	16.57973243	12.15001399
474	1	-25.32173003	17.33182594	10.12501165
475	1	-26.16076848	2.051018217	10.12501165
476	1	-24.3344501	1.298924707	12.15001399
477	1	-27.00186955	-2.57e-05	12.15001399
478	1	44.42523136	-16.57978386	10.12501165
479	1	39.05815003	-1.298976134	-12.15001399
480	1	38.07087011	-17.33187737	-10.12501165
481	1	39.89718849	-16.57978386	-12.15001399
482	1	35.36914562	16.57973243	-2.025002331
483	1	34.53010716	1.298924707	-2.025002331
484	1	32.70378879	2.051018217	3.55e-15
485	1	31.86268771	-2.57e-05	-2.025002331
486	1	34.53010716	-1.298976134	-2.025002331
487	1	32.70378878	-2.051069646	-4.050004662
488	1	35.36914562	-16.57978386	-2.025002331
489	1	33.54282724	17.33182594	8.88e-16
490	1	33.54282725	-17.33187737	-4.050004662
491	1	39.89718849	16.57973243	0.0
492	1	38.0708701	17.33182594	-2.025002331
493	1	37.23183165	2.051018217	-2.025002331
494	1	39.05815003	1.298924707	1.78e-15
495	1	36.39073058	-2.57e-05	8.88e-16
496	1	28.17574591	-2.051069646	-2.025002331
497	1	30.00206429	-1.298976134	-4.050004662
498	1	31.68220382	18.63077636	-2.025002331
499	1	29.01478438	-17.33187737	-2.025002331
500	1	36.21024669	18.63077636	8.88e-16
501	1	29.01478438	-17.33187737	2.025002331
502	1	35.36914562	16.57973243	2.025002331
503	1	34.53010716	1.298924707	2.025002331
504	1	32.70378879	2.051018217	4.050004662
505	1	31.86268771	-2.57e-05	2.025002331
506	1	34.53010716	-1.298976134	2.025002331
507	1	32.70378878	-2.051069646	-1.78e-15
508	1	35.36914562	-16.57978386	2.025002331
509	1	30.84110276	-16.57978386	2.26e-15
510	1	33.54282725	-17.33187737	2.34e-15
511	1	39.89718849	16.57973243	4.050004662
512	1	38.0708701	17.33182594	2.025002331
513	1	37.23183165	2.051018217	2.025002331
514	1	39.05815003	1.298924707	4.050004662
515	1	36.39073058	-2.57e-05	4.050004662
516	1	28.17574591	-2.051069646	2.025002331
517	1	30.00206429	-1.298976134	-8.88e-16
518	1	31.68220382	18.63077636	2.025002331
519	1	33.54282724	17.33182594	4.050004662
520	1	30.84110276	-16.57978386	-4.050004662
521	1	33.54282724	17.33182594	-4.050004662
522	1	35.36914562	16.57973243	-10.12501165
523	1	34.53010716	1.298924707	-10.12501165
524	1	32.70378879	2.051018217	-8.100009324
525	1	31.86268771	-2.57e-05	-10.12501165
526	1	34.53010716	-1.298976134	-10.12501165
527	1	32.70378878	-2.051069646	20.25002331
528	1	35.36914562	-16.57978386	-10.12501165
529	1	33.54282724	17.33182594	-8.100009324
530	1	33.54282725	-17.33187737	-12.15001399
531	1	39.89718849	16.57973243	-8.100009324
532	1	38.0708701	17.33182594	-10.12501165
533	1	37.23183165	2.051018217	-10.12501165
534	1	39.05815003	1.298924707	-8.100009324
535	1	36.39073058	-2.57e-05	-8.100009324
536	1	28.17574591	-2.051069646	-10.12501165
537	1	30.00206429	-1.298976134	-12.15001399
538	1	31.68220382	18.63077636	-10.12501165
539	1	36.21024669	18.63077636	-4.050004662
540	1	36.21024669	18.63077636	-8.100009324
541	1	29.01478438	-17.33187737	-6.075006993
542	1	35.36914562	16.57973243	-6.075006993
543	1	34.53010716	1.298924707	-6.075006993
544	1	32.70378879	2.051018217	-4.050004662
545	1	31.86268771	-2.57e-05	-6.075006993
546	1	34.53010716	-1.298976134	-6.075006993
547	1	32.70378878	-2.051069646	-8.100009324
548	1	35.36914562	-16.57978386	-6.075006993
549	1	30.84110276	-16.57978386	-8.100009324
550	1	33.54282725	-17.33187737	-8.100009324
551	1	39.89718849	16.57973243	-4.050004662
552	1	38.0708701	17.33182594	-6.075006993
553	1	37.23183165	2.051018217	-6.075006993
554	1	39.05815003	1.298924707	-4.050004662
555	1	36.39073058	-2.57e-05	-4.050004662
556	1	28.17574591	-2.051069646	-6.075006993
557	1	30.00206429	-1.298976134	-8.100009324
558	1	31.68220382	18.63077636	-6.075006993
559	1	36.21024669	18.63077636	4.050004662
560	1	30.84110276	-16.57978386	4.050004662
561	1	29.01478438	-17.33187737	6.075006993
562	1	33.54282724	17.33182594	16.20001865
563	1	35.36914562	16.57973243	14.17501632
564	1	34.53010716	1.298924707	14.17501632
565	1	32.70378879	2.051018217	16.20001865
566	1	31.86268771	-2.57e-05	14.17501632
567	1	34.53010716	-1.298976134	14.17501632
568	1	32.70378878	-2.051069646	12.15001399
569	1	36.21024669	18.63077636	16.20001865
570	1	35.36914562	-16.57978386	14.17501632
571	1	31.68220382	18.63077636	14.17501632
572	1	39.89718849	16.57973243	16.20001865
573	1	38.0708701	17.33182594	14.17501632
574	1	37.23183165	2.051018217	14.17501632
575	1	39.05815003	1.298924707	16.20001865
576	1	36.39073058	-2.57e-05	16.20001865
577	1	28.17574591	-2.051069646	14.17501632
578	1	33.54282725	-17.33187737	12.15001399
579	1	30.00206429	-1.298976134	12.15001399
580	1	30.84110276	-16.57978386	16.20001865
581	1	30.00206429	-1.298976134	16.20001865
582	1	36.21024669	18.63077636	-12.15001399
583	1	35.36914562	16.57973243	18.22502098
584	1	34.53010716	1.298924707	18.22502098
585	1	32.70378879	2.051018217	-12.15001399
586	1	31.86268771	-2.57e-05	18.22502098
587	1	34.53010716	-1.298976134	18.22502098
588	1	32.70378878	-2.051069646	16.20001865
589	1	29.01478438	-17.33187737	18.22502098
590	1	35.36914562	-16.57978386	18.22502098
591	1	31.68220382	18.63077636	18.22502098
592	1	39.89718849	16.57973243	-12.15001399
593	1	38.0708701	17.33182594	18.22502098
594	1	37.23183165	2.051018217	18.22502098
595	1	39.05815003	1.298924707	-12.15001399
596	1	36.39073058	-2.57e-05	-12.15001399
597	1	28.17574591	-2.051069646	18.22502098
598	1	33.54282725	-17.33187737	16.20001865
599	1	29.01478438	-17.33187737	14.17501632
600	1	30.84110276	-16.57978386	12.15001399
601	1	36.21024669	18.63077636	12.15001399
602	1	35.36914562	16.57973243	6.075006993
603	1	34.53010716	1.298924707	6.075006993
604	1	32.70378879	2.051018217	8.100009324
605	1	31.86268771	-2.57e-05	6.075006993
606	1	34.53010716	-1.298976134	6.075006993
607	1	32.70378878	-2.051069646	4.050004662
608	1	35.36914562	-16.57978386	6.075006993
609	1	33.54282724	17.33182594	8.100009324
610	1	33.54282725	-17.33187737	4.050004662
611	1	39.89718849	16.57973243	8.100009324
612	1	38.0708701	17.33182594	6.075006993
613	1	37.23183165	2.051018217	6.075006993
614	1	39.05815003	1.298924707	8.100009324
615	1	36.39073058	-2.57e-05	8.100009324
616	1	28.17574591	-2.051069646	6.075006993
617	1	30.00206429	-1.298976134	4.050004662
618	1	31.68220382	18.63077636	6.075006993
619	1	36.21024669	18.63077636	8.100009324
620	1	30.84110276	-16.57978386	8.100009324
621	1	29.01478438	-17.33187737	10.12501165
622	1	33.54282724	17.33182594	12.15001399
623	1	35.36914562	16.57973243	10.12501165
624	1	34.53010716	1.298924707	10.12501165
625	1	32.70378879	2.051018217	12.15001399
626	1	31.86268771	-2.57e-05	10.12501165
627	1	34.53010716	-1.298976134	10.12501165
628	1	32.70378878	-2.051069646	8.100009324
629	1	35.36914562	-16.57978386	10.12501165
630	1	33.54282725	-17.33187737	8.100009324
631	1	31.68220382	18.63077636	10.12501165
632	1	39.89718849	16.57973243	12.15001399
633	1	38.0708701	17.33182594	10.12501165
634	1	37.23183165	2.051018217	10.12501165
635	1	39.05815003	1.298924707	12.15001399
636	1	36.39073058	-2.57e-05	12.15001399
637	1	28.17574591	-2.051069646	10.12501165
638	1	30.00206429	-1.298976134	8.100009324
639	1	10.90261291	-17.33187737	-10.12501165
640	1	12.72893129	-16.57978386	-12.15001399
641	1	33.54282724	17.33182594	-12.15001399
642	1	6.37457004	17.33182594	-12.15001399
643	1	-10.7503215	1.298924707	-2.025002331
644	1	-12.57663988	2.051018217	3.55e-15
645	1	-13.41774095	-2.57e-05	-2.025002331
646	1	-10.7503215	-1.298976134	-2.025002331
647	1	-12.57663989	-2.051069646	-4.050004662
648	1	-9.911283041	-16.57978386	-2.025002331
649	1	-11.73760142	-17.33187737	-4.050004662
650	1	-9.911283046	16.57973243	-2.025002331
651	1	-13.59822484	18.63077636	-2.025002331
652	1	-7.20955856	17.33182594	-2.025002331
653	1	-8.048597012	2.051018217	-2.025002331
654	1	-6.222278634	1.298924707	1.78e-15
655	1	-8.889698085	-2.57e-05	8.88e-16
656	1	-17.10468275	-2.051069646	-2.025002331
657	1	-15.27836437	-1.298976134	-4.050004662
658	1	-16.26564428	-17.33187737	-2.025002331
659	1	-5.383240179	16.57973243	0.0
660	1	-14.43932591	-16.57978386	-4.050004662
661	1	-11.73760143	17.33182594	8.88e-16
662	1	-14.43932591	-16.57978386	2.26e-15
663	1	-10.7503215	1.298924707	2.025002331
664	1	-12.57663988	2.051018217	4.050004662
665	1	-13.41774095	-2.57e-05	2.025002331
666	1	-10.7503215	-1.298976134	2.025002331
667	1	-12.57663989	-2.051069646	-1.78e-15
668	1	-9.911283041	-16.57978386	2.025002331
669	1	-11.73760142	-17.33187737	2.34e-15
670	1	-9.070181973	18.63077636	8.88e-16
671	1	-13.59822484	18.63077636	2.025002331
672	1	-7.20955856	17.33182594	2.025002331
673	1	-8.048597012	2.051018217	2.025002331
674	1	-6.222278634	1.298924707	4.050004662
675	1	-8.889698085	-2.57e-05	4.050004662
676	1	-17.10468275	-2.051069646	2.025002331
677	1	-15.27836437	-1.298976134	-8.88e-16
678	1	-16.26564428	-17.33187737	2.025002331
679	1	-5.383240179	16.57973243	4.050004662
680	1	-9.911283046	16.57973243	2.025002331
681	1	-9.070181973	18.63077636	-4.050004662
682	1	-9.911283046	16.57973243	-6.075006993
683	1	-10.7503215	1.298924707	-10.12501165
684	1	-12.57663988	2.051018217	-8.100009324
685	1	-13.41774095	-2.57e-05	-10.12501165
686	1	-10.7503215	-1.298976134	-10.12501165
687	1	-12.57663989	-2.051069646	20.25002331
688	1	-9.911283041	-16.57978386	-10.12501165
689	1	-11.73760142	-17.33187737	-12.15001399
690	1	-9.911283046	16.57973243	-10.12501165
691	1	-13.59822484	18.63077636	-10.12501165
692	1	-7.20955856	17.33182594	-10.12501165
693	1	-8.048597012	2.051018217	-10.12501165
694	1	-6.222278634	1.298924707	-8.100009324
695	1	-8.889698085	-2.57e-05	-8.100009324
696	1	-17.10468275	-2.051069646	-10.12501165
697	1	-15.27836437	-1.298976134	-12.15001399
698	1	-16.26564428	-17.33187737	-10.12501165
699	1	-5.383240179	16.57973243	-8.100009324
700	1	-11.73760143	17.33182594	-4.050004662
701	1	-11.73760143	17.33182594	-8.100009324
702	1	-14.43932591	-16.57978386	-8.100009324
703	1	-10.7503215	1.298924707	-6.075006993