ITEM: TIMESTEP
0
ITEM: NUMBER OF ATOMS
44
ITEM: BOX BOUNDS pp pp pp
-1.2807239265500000e+01 3.8421717796599999e+01
-1.2474884115500000e+01 1.2474884115500000e+01
-8.1000093236000001e+00 1.6200018647099999e+01
ITEM: ATOMS id type x y z c_vol[1]
1849 3 -10.6089 -5.1e-05 -6.07501 11.975
1835 3 -4.26613 -0.306779 -5.99937 11.8864
1855 3 2.19834 -5.1e-05 -6.07501 11.975
1826 3 8.54111 -0.306779 -5.99937 11.8864
1844 3 15.0056 -5.1e-05 -6.07501 11.975
1838 3 21.3484 -0.306779 -5.99937 11.8864
1866 3 27.8128 -5.1e-05 -6.07501 11.975
1843 3 34.1556 -0.306779 -5.99937 11.8864
1836 3 -10.6089 -5.1e-05 -2.025 11.975
1859 3 -4.20528 -5.1e-05 -2.025 11.975
1862 3 2.19834 -5.1e-05 -2.025 11.975
1839 3 8.60196 -5.1e-05 -2.025 11.975
1828 3 15.0056 -5.1e-05 -2.025 11.975
1834 3 21.4092 -5.1e-05 -2.025 11.975
1853 3 27.8128 -5.1e-05 -2.025 11.975
1856 3 34.2164 -5.1e-05 -2.025 11.975
1841 3 -10.6089 -5.1e-05 2.025 11.975
1860 3 -4.20528 -5.1e-05 2.025 11.975
1830 3 2.19834 -5.1e-05 2.025 11.975
1832 3 8.60196 -5.1e-05 2.025 11.975
1840 3 15.0056 -5.1e-05 2.025 11.975
1851 3 21.4092 -5.1e-05 2.025 11.975
1858 3 27.8128 -5.1e-05 2.025 11.975
1857 3 34.2164 -5.1e-05 2.025 11.975
1829 3 -10.6089 -5.1e-05 6.07501 11.975
1833 3 -4.20528 -5.1e-05 6.07501 11.975
1852 3 2.19834 -5.1e-05 6.07501 11.975
1845 3 8.60196 -5.1e-05 6.07501 11.975
1846 3 15.0056 -5.1e-05 6.07501 11.975
1865 3 21.4092 -5.1e-05 6.07501 11.975
1842 3 27.8128 -5.1e-05 6.07501 11.975
1867 3 34.2164 -5.1e-05 6.07501 11.975
1861 3 -10.6089 -5.1e-05 10.125 11.975
1854 3 -4.20528 -5.1e-05 10.125 11.975
1848 3 2.19834 -5.1e-05 10.125 11.975
1827 3 8.60196 -5.1e-05 10.125 11.975
1868 3 15.0056 -5.1e-05 10.125 11.975
1831 3 21.4092 -5.1e-05 10.125 11.975
1837 3 27.8128 -5.1e-05 10.125 11.975
1850 3 34.2164 -5.1e-05 10.125 11.975
1863 3 -4.21281 0.345018 14.0213 11.8517
1864 3 8.59443 0.345018 14.0213 11.8517
1847 3 21.4017 0.345018 14.0213 11.8517
1825 3 34.2089 0.345018 14.0213 11.8517
